429
Frame 1; Step count: 0; Realtime (MD) = 0.000000 fs
ZN   7.5335   5.3005   -7.533
ZN   5.3005   -5.3005   -5.3
ZN   5.3005   7.5335   7.534
ZN   5.3005   -7.5335   7.534
ZN   -5.3005   7.5335   -7.533
ZN   5.3005   5.3005   5.301
ZN   7.5335   -5.3005   -7.533
ZN   -5.3005   -7.5335   7.534
ZN   -5.3005   5.3005   -5.3
ZN   -5.3005   -5.3005   5.301
ZN   -7.5335   -5.3005   -7.533
ZN   7.5335   -7.5335   5.301
ZN   -7.5335   -7.5335   5.301
ZN   7.5335   -5.3005   7.534
ZN   7.5335   7.5335   5.301
ZN   5.3005   -7.5335   -7.533
ZN   -5.3005   -7.5335   -7.533
ZN   -7.5335   7.5335   -5.3
ZN   -7.5335   -5.3005   7.534
ZN   -7.5335   -7.5335   -5.3
ZN   -5.3005   -5.3005   -5.3
ZN   -7.5335   5.3005   7.534
ZN   -7.5335   5.3005   -7.533
ZN   -5.3005   5.3005   5.301
ZN   5.3005   7.5335   -7.533
ZN   5.3005   -5.3005   5.301
ZN   5.3005   5.3005   -5.3
ZN   7.5335   -7.5335   -5.3
ZN   7.5335   7.5335   -5.3
ZN   -7.5335   7.5335   5.301
ZN   7.5335   5.3005   7.534
ZN   -5.3005   7.5335   7.534
O2   3.4375   7.2335   7.234
O2   -7.2335   5.6005   -9.397
O2   -7.2335   3.4375   7.234
O2   -9.3975   7.2335   -5.6
O2   7.2335   -7.2335   3.438
O2   3.4375   -5.6005   -5.6
O2   7.2335   3.4375   -7.233
O2   -5.6005   7.2335   9.398
O2   -3.4375   5.6005   -5.6
O2   7.2335   3.4375   7.234
O2   7.2335   -9.3975   5.601
O2   -7.2335   -9.3975   5.601
O2   9.3975   -5.6005   -7.233
O2   -5.6005   3.4375   -5.6
O2   -5.6005   9.3975   -7.233
O2   -3.4375   7.2335   -7.233
O2   9.3975   5.6005   -7.233
O2   5.6005   -3.4375   5.601
O2   3.4375   -5.6005   5.601
O2   -5.6005   -7.2335   -9.397
O2   7.2335   -5.6005   9.398
O2   7.2335   9.3975   -5.6
O2   -3.4375   -7.2335   -7.233
O2   7.2335   7.2335   -3.437
O1   -6.4175   -6.4175   6.418
O2   -7.2335   -5.6005   9.398
O2   -3.4375   -5.6005   5.601
O2   7.2335   -5.6005   -9.397
O2   -5.6005   -3.4375   -5.6
O2   7.2335   -7.2335   -3.437
O2   9.3975   5.6005   7.234
O2   5.6005   -7.2335   -9.397
O2   -5.6005   5.6005   -3.437
O2   5.6005   -5.6005   -3.437
O2   -9.3975   5.6005   7.234
O2   9.3975   7.2335   5.601
O2   7.2335   -9.3975   -5.6
O2   -5.6005   7.2335   -9.397
O2   -5.6005   -5.6005   3.438
O2   -7.2335   9.3975   5.601
O2   7.2335   -3.4375   -7.233
O2   -7.2335   -3.4375   -7.233
O2   5.6005   3.4375   5.601
O2   9.3975   -7.2335   5.601
O2   -7.2335   -3.4375   7.234
O2   9.3975   -7.2335   -5.6
O2   -3.4375   -7.2335   7.234
O2   -9.3975   -5.6005   7.234
O1   -6.4175   -6.4175   -6.417
O2   7.2335   7.2335   3.438
O2   3.4375   5.6005   5.601
O2   -9.3975   5.6005   -7.233
O2   5.6005   5.6005   3.438
O2   -7.2335   9.3975   -5.6
O2   5.6005   -5.6005   3.438
O2   -9.3975   7.2335   5.601
O2   -5.6005   -9.3975   -7.233
O2   -5.6005   -3.4375   5.601
O2   -5.6005   -7.2335   9.398
O2   5.6005   7.2335   9.398
O2   -7.2335   -7.2335   3.438
O2   5.6005   -7.2335   9.398
O2   7.2335   5.6005   9.398
O2   7.2335   5.6005   -9.397
O2   -7.2335   -5.6005   -9.397
O2   -7.2335   7.2335   -3.437
O1   6.4175   6.4175   -6.417
O1   6.4175   -6.4175   6.418
O1   -6.4175   6.4175   6.418
O2   5.6005   9.3975   -7.233
O2   -7.2335   7.2335   3.438
O2   7.2335   -3.4375   7.234
O2   -7.2335   3.4375   -7.233
O2   5.6005   9.3975   7.234
O2   -5.6005   5.6005   3.438
O2   7.2335   9.3975   5.601
O1   6.4175   -6.4175   -6.417
O1   -6.4175   6.4175   -6.417
O2   9.3975   -5.6005   7.234
O2   -3.4375   7.2335   7.234
O2   -3.4375   5.6005   5.601
O2   5.6005   3.4375   -5.6
O2   -7.2335   5.6005   9.398
O2   -3.4375   -5.6005   -5.6
O2   -9.3975   -5.6005   -7.233
O2   -9.3975   -7.2335   -5.6
O2   5.6005   7.2335   -9.397
O2   -5.6005   9.3975   7.234
O2   9.3975   7.2335   -5.6
O2   5.6005   -9.3975   -7.233
O2   3.4375   5.6005   -5.6
O2   -5.6005   3.4375   5.601
O2   5.6005   5.6005   -3.437
O2   -7.2335   -7.2335   -3.437
O2   -7.2335   -9.3975   -5.6
O1   6.4175   6.4175   6.418
O2   5.6005   -9.3975   7.234
O2   -9.3975   -7.2335   5.601
O2   3.4375   7.2335   -7.233
O2   3.4375   -7.2335   -7.233
O2   -5.6005   -5.6005   -3.437
O2   3.4375   -7.2335   7.234
O2   5.6005   -3.4375   -5.6
O2   -5.6005   -9.3975   7.234
H   4.9825   7.8525   -11.675
H   11.6745   7.8525   4.983
H   -7.8525   11.6745   -4.982
H   4.9825   7.8525   11.674
H   -7.8525   -1.1605   7.853
H   11.6745   -4.9825   -7.852
H   1.1605   -7.8525   -7.852
H   1.1605   7.8525   7.853
H   1.1605   4.9825   -4.982
H   -4.9825   11.6745   -7.852
H   -4.9825   -1.1605   4.983
H   4.9825   -11.6745   7.853
H   -1.1605   7.8525   7.853
H   7.8525   -11.6745   4.983
H   -7.8525   4.9825   11.674
H   1.1605   -7.8525   7.853
H   4.9825   11.6745   -7.852
H   4.9825   -1.1605   4.983
H   -4.9825   1.1605   4.983
H   1.1605   -4.9825   -4.982
H   4.9825   -1.1605   -4.982
H   -11.6745   -4.9825   7.853
H   7.8525   7.8525   1.161
H   4.9825   -11.6745   -7.852
H   -7.8525   11.6745   4.983
H   4.9825   -4.9825   -1.16
H   4.9825   1.1605   -4.982
H   -4.9825   -7.8525   11.674
H   4.9825   4.9825   1.161
H   -1.1605   -4.9825   4.983
H   1.1605   4.9825   4.983
H   7.8525   11.6745   4.983
H   -1.1605   7.8525   -7.852
H   -4.9825   7.8525   -11.675
H   11.6745   4.9825   7.853
H   7.8525   7.8525   -1.16
H   4.9825   1.1605   4.983
H   7.8525   -7.8525   1.161
H   7.8525   -4.9825   11.674
H   1.1605   7.8525   -7.852
H   7.8525   -1.1605   -7.852
H   7.8525   -11.6745   -4.982
H   -7.8525   -4.9825   11.674
H   7.8525   1.1605   7.853
H   -1.1605   -4.9825   -4.982
H   11.6745   -7.8525   -4.982
H   -7.8525   -11.6745   -4.982
H   -11.6745   -7.8525   4.983
H   7.8525   4.9825   11.674
H   7.8525   -7.8525   -1.16
H   11.6745   4.9825   -7.852
H   -11.6745   -7.8525   -4.982
H   -11.6745   7.8525   -4.982
H   -11.6745   4.9825   7.853
H   4.9825   11.6745   7.853
H   -7.8525   4.9825   -11.675
H   11.6745   -4.9825   7.853
H   -7.8525   -7.8525   1.161
H   7.8525   -1.1605   7.853
H   -1.1605   -7.8525   7.853
H   -7.8525   -11.6745   4.983
H   -1.1605   -7.8525   -7.852
H   -4.9825   4.9825   1.161
H   11.6745   7.8525   -4.982
H   -4.9825   -1.1605   -4.982
H   4.9825   -4.9825   1.161
H   -1.1605   4.9825   4.983
H   -4.9825   11.6745   7.853
H   -4.9825   -7.8525   -11.675
H   -7.8525   7.8525   -1.16
H   7.8525   11.6745   -4.982
H   -7.8525   7.8525   1.161
H   -4.9825   1.1605   -4.982
H   -4.9825   -4.9825   -1.16
H   4.9825   -7.8525   11.674
H   7.8525   4.9825   -11.675
H   -7.8525   -4.9825   -11.675
H   -4.9825   4.9825   -1.16
H   7.8525   1.1605   -7.852
H   4.9825   4.9825   -1.16
H   -1.1605   4.9825   -4.982
H   4.9825   -7.8525   -11.675
H   -7.8525   -7.8525   -1.16
H   -4.9825   7.8525   11.674
H   -7.8525   1.1605   -7.852
H   -4.9825   -11.6745   -7.852
H   -7.8525   1.1605   7.853
H   1.1605   -4.9825   4.983
H   -11.6745   4.9825   -7.852
H   -7.8525   -1.1605   -7.852
H   -4.9825   -4.9825   1.161
H   11.6745   -7.8525   4.983
H   7.8525   -4.9825   -11.675
H   -4.9825   -11.6745   7.853
H   -11.6745   7.8525   4.983
H   -11.6745   -4.9825   -7.852
C1   6.4175   -9.9985   -6.417
C3   -12.1595   7.2665   5.568
C1   9.9985   -6.4175   6.418
C2   11.4535   6.4175   -6.417
C1   2.8365   6.4175   -6.417
C2   -1.3805   6.4175   6.418
C2   1.3805   6.4175   -6.417
C2   -11.4535   6.4175   6.418
C1   -2.8365   6.4175   6.418
C1   6.4175   -6.4175   -2.836
C2   1.3805   -6.4175   6.418
C1   -6.4175   -6.4175   -2.836
C1   -6.4175   6.4175   2.837
C3   0.6755   7.2665   -7.266
C1   6.4175   -6.4175   2.837
C2   6.4175   6.4175   -11.454
C2   -6.4175   11.4535   6.418
C1   -6.4175   -6.4175   9.998
C3   -5.5675   7.2665   -12.16
C2   -6.4175   -6.4175   -11.454
C2   -6.4175   -1.3805   6.418
C3   0.6755   -7.2665   7.267
C2   -6.4175   6.4175   11.453
C3   7.2665   -5.5675   -12.16
C2   6.4175   -6.4175   11.453
C1   2.8365   -6.4175   6.418
C2   -11.4535   -6.4175   -6.417
C3   -0.6755   -7.2665   7.267
C3   -7.2665   -5.5675   -12.16
C2   6.4175   -6.4175   1.381
C2   -6.4175   6.4175   1.381
C2   6.4175   6.4175   -1.38
C1   6.4175   6.4175   -2.836
C3   -5.5675   0.6755   5.568
C3   0.6755   7.2665   7.267
C2   6.4175   11.4535   6.418
C2   6.4175   1.3805   6.418
C1   6.4175   -9.9985   6.418
C2   -6.4175   11.4535   -6.417
C3   5.5675   5.5675   0.676
C1   6.4175   2.8365   6.418
C3   -5.5675   -7.2665   -12.16
C3   0.6755   -5.5675   -5.567
C2   6.4175   6.4175   1.381
C2   6.4175   -11.4535   -6.417
C2   -6.4175   1.3805   -6.417
C1   -6.4175   2.8365   -6.417
C2   -1.3805   6.4175   -6.417
C1   -2.8365   -6.4175   6.418
C2   11.4535   -6.4175   -6.417
C3   12.1595   7.2665   5.568
C1   -2.8365   6.4175   -6.417
C1   6.4175   9.9985   6.418
C2   -1.3805   -6.4175   6.418
C2   1.3805   6.4175   6.418
C2   1.3805   -6.4175   -6.417
C1   2.8365   -6.4175   -6.417
C2   -11.4535   -6.4175   6.418
C1   2.8365   6.4175   6.418
C2   -11.4535   6.4175   -6.417
C3   5.5675   -0.6755   5.568
C2   6.4175   11.4535   -6.417
C1   -2.8365   -6.4175   -6.417
C2   6.4175   1.3805   -6.417
C1   6.4175   2.8365   -6.417
C2   -6.4175   -1.3805   -6.417
C1   -6.4175   -2.8365   -6.417
C3   -7.2665   12.1595   5.568
C2   6.4175   -11.4535   6.418
C2   -6.4175   -11.4535   -6.417
C3   5.5675   7.2665   -12.16
C2   11.4535   -6.4175   6.418
C3   5.5675   -7.2665   12.16
C2   -6.4175   1.3805   6.418
C1   -6.4175   2.8365   6.418
C1   6.4175   6.4175   2.837
C2   -6.4175   6.4175   -11.454
C1   6.4175   -6.4175   -9.998
C2   6.4175   -6.4175   -1.38
C2   6.4175   -6.4175   -11.454
C2   -6.4175   -6.4175   1.381
C1   -6.4175   -6.4175   2.837
C1   9.9985   6.4175   -6.417
C2   -6.4175   -6.4175   11.453
C2   6.4175   -1.3805   6.418
C1   6.4175   -2.8365   6.418
C2   6.4175   6.4175   11.453
C2   -6.4175   6.4175   -1.38
C1   -6.4175   6.4175   -2.836
C3   5.5675   12.1595   7.267
C3   -7.2665   -0.6755   -7.266
C3   7.2665   -5.5675   12.16
C3   -5.5675   -0.6755   -5.567
C3   -5.5675   5.5675   -0.675
C3   7.2665   5.5675   12.16
C3   -7.2665   5.5675   -12.16
C1   -6.4175   -9.9985   6.418
C3   12.1595   -5.5675   -7.266
C1   -6.4175   6.4175   9.998
C2   -6.4175   -11.4535   6.418
C3   -0.6755   7.2665   -7.266
C3   -7.2665   -12.1595   5.568
C3   -12.1595   -5.5675   7.267
C3   -0.6755   5.5675   -5.567
C3   5.5675   -5.5675   0.676
C2   6.4175   -1.3805   -6.417
C3   -0.6755   -5.5675   5.568
C3   7.2665   -0.6755   7.267
C1   6.4175   -6.4175   9.998
C3   5.5675   -7.2665   -12.16
C3   5.5675   0.6755   -5.567
C3   12.1595   5.5675   7.267
C3   -7.2665   -5.5675   12.16
C1   -6.4175   9.9985   -6.417
C3   0.6755   -7.2665   -7.266
C3   5.5675   0.6755   5.568
C3   7.2665   -0.6755   -7.266
C3   -7.2665   0.6755   -7.266
C2   11.4535   6.4175   6.418
C1   6.4175   6.4175   9.998
C3   -12.1595   -7.2665   5.568
C3   -7.2665   12.1595   -5.567
C3   5.5675   -0.6755   -5.567
C1   -6.4175   -2.8365   6.418
C3   -5.5675   12.1595   -7.266
C1   6.4175   6.4175   -9.998
C1   6.4175   9.9985   -6.417
C1   -6.4175   -6.4175   -9.998
C3   5.5675   7.2665   12.16
C3   12.1595   -7.2665   -5.567
C3   7.2665   7.2665   0.676
C3   -7.2665   -7.2665   0.676
C3   -5.5675   5.5675   0.676
C3   -5.5675   -0.6755   5.568
C3   -5.5675   -12.1595   7.267
C3   -12.1595   7.2665   -5.567
C3   5.5675   -12.1595   -7.266
C1   9.9985   6.4175   6.418
C3   -5.5675   -5.5675   0.676
C1   6.4175   -2.8365   -6.417
C3   -12.1595   5.5675   7.267
C3   -0.6755   -7.2665   -7.266
C3   5.5675   12.1595   -7.266
C3   -0.6755   5.5675   5.568
C3   7.2665   0.6755   7.267
C3   -5.5675   12.1595   7.267
C3   0.6755   5.5675   -5.567
C3   12.1595   5.5675   -7.266
C3   -5.5675   -7.2665   12.16
C3   12.1595   -5.5675   7.267
C3   -7.2665   0.6755   7.267
C1   -9.9985   -6.4175   -6.417
C3   7.2665   7.2665   -0.675
C2   -1.3805   -6.4175   -6.417
C3   -0.6755   7.2665   7.267
C3   -7.2665   -0.6755   7.267
C3   12.1595   7.2665   -5.567
C1   -6.4175   9.9985   6.418
C3   12.1595   -7.2665   5.568
C3   -5.5675   7.2665   12.16
C3   -5.5675   0.6755   -5.567
C3   0.6755   -5.5675   5.568
C3   5.5675   -12.1595   7.267
C3   -12.1595   -5.5675   -7.266
C1   -6.4175   6.4175   -9.998
C3   -7.2665   7.2665   -0.675
C3   -5.5675   -12.1595   -7.266
C1   -6.4175   -9.9985   -6.417
C3   5.5675   -5.5675   -0.675
C3   7.2665   12.1595   5.568
C3   -5.5675   -5.5675   -0.675
C3   7.2665   -7.2665   -0.675
C2   -6.4175   -6.4175   -1.38
C3   -12.1595   5.5675   -7.266
C3   7.2665   12.1595   -5.567
C1   -9.9985   6.4175   -6.417
C3   5.5675   5.5675   -0.675
C3   0.6755   5.5675   5.568
C1   -9.9985   6.4175   6.418
C1   -9.9985   -6.4175   6.418
C3   -7.2665   -7.2665   -0.675
C3   -7.2665   -12.1595   -5.567
C3   7.2665   5.5675   -12.16
C3   -7.2665   7.2665   0.676
C3   -0.6755   -5.5675   -5.567
C3   7.2665   -7.2665   0.676
C3   7.2665   0.6755   -7.266
C3   7.2665   -12.1595   -5.567
C1   9.9985   -6.4175   -6.417
C3   -7.2665   5.5675   12.16
C3   7.2665   -12.1595   5.568
C3   -12.1595   -7.2665   -5.567
H2G   -0.0345   -0.0135   -0.017
H2E   0.3365   -0.0135   -0.017
H2E   -0.4055   -0.0135   -0.017
H2N   0.3285   -0.0135   -0.017
H2N   -0.3975   -0.0135   -0.017
434
Frame 2; Step count: 10; Realtime (MD) = 0.000000 fs
ZN   7.5335   5.3005   -7.533
ZN   5.3005   -5.3005   -5.3
ZN   5.3005   7.5335   7.534
ZN   5.3005   -7.5335   7.534
ZN   -5.3005   7.5335   -7.533
ZN   5.3005   5.3005   5.301
ZN   7.5335   -5.3005   -7.533
ZN   -5.3005   -7.5335   7.534
ZN   -5.3005   5.3005   -5.3
ZN   -5.3005   -5.3005   5.301
ZN   -7.5335   -5.3005   -7.533
ZN   7.5335   -7.5335   5.301
ZN   -7.5335   -7.5335   5.301
ZN   7.5335   -5.3005   7.534
ZN   7.5335   7.5335   5.301
ZN   5.3005   -7.5335   -7.533
ZN   -5.3005   -7.5335   -7.533
ZN   -7.5335   7.5335   -5.3
ZN   -7.5335   -5.3005   7.534
ZN   -7.5335   -7.5335   -5.3
ZN   -5.3005   -5.3005   -5.3
ZN   -7.5335   5.3005   7.534
ZN   -7.5335   5.3005   -7.533
ZN   -5.3005   5.3005   5.301
ZN   5.3005   7.5335   -7.533
ZN   5.3005   -5.3005   5.301
ZN   5.3005   5.3005   -5.3
ZN   7.5335   -7.5335   -5.3
ZN   7.5335   7.5335   -5.3
ZN   -7.5335   7.5335   5.301
ZN   7.5335   5.3005   7.534
ZN   -5.3005   7.5335   7.534
O2   3.4375   7.2335   7.234
O2   -7.2335   5.6005   -9.397
O2   -7.2335   3.4375   7.234
O2   -9.3975   7.2335   -5.6
O2   7.2335   -7.2335   3.438
O2   3.4375   -5.6005   -5.6
O2   7.2335   3.4375   -7.233
O2   -5.6005   7.2335   9.398
O2   -3.4375   5.6005   -5.6
O2   7.2335   3.4375   7.234
O2   7.2335   -9.3975   5.601
O2   -7.2335   -9.3975   5.601
O2   9.3975   -5.6005   -7.233
O2   -5.6005   3.4375   -5.6
O2   -5.6005   9.3975   -7.233
O2   -3.4375   7.2335   -7.233
O2   9.3975   5.6005   -7.233
O2   5.6005   -3.4375   5.601
O2   3.4375   -5.6005   5.601
O2   -5.6005   -7.2335   -9.397
O2   7.2335   -5.6005   9.398
O2   7.2335   9.3975   -5.6
O2   -3.4375   -7.2335   -7.233
O2   7.2335   7.2335   -3.437
O1   -6.4175   -6.4175   6.418
O2   -7.2335   -5.6005   9.398
O2   -3.4375   -5.6005   5.601
O2   7.2335   -5.6005   -9.397
O2   -5.6005   -3.4375   -5.6
O2   7.2335   -7.2335   -3.437
O2   9.3975   5.6005   7.234
O2   5.6005   -7.2335   -9.397
O2   -5.6005   5.6005   -3.437
O2   5.6005   -5.6005   -3.437
O2   -9.3975   5.6005   7.234
O2   9.3975   7.2335   5.601
O2   7.2335   -9.3975   -5.6
O2   -5.6005   7.2335   -9.397
O2   -5.6005   -5.6005   3.438
O2   -7.2335   9.3975   5.601
O2   7.2335   -3.4375   -7.233
O2   -7.2335   -3.4375   -7.233
O2   5.6005   3.4375   5.601
O2   9.3975   -7.2335   5.601
O2   -7.2335   -3.4375   7.234
O2   9.3975   -7.2335   -5.6
O2   -3.4375   -7.2335   7.234
O2   -9.3975   -5.6005   7.234
O1   -6.4175   -6.4175   -6.417
O2   7.2335   7.2335   3.438
O2   3.4375   5.6005   5.601
O2   -9.3975   5.6005   -7.233
O2   5.6005   5.6005   3.438
O2   -7.2335   9.3975   -5.6
O2   5.6005   -5.6005   3.438
O2   -9.3975   7.2335   5.601
O2   -5.6005   -9.3975   -7.233
O2   -5.6005   -3.4375   5.601
O2   -5.6005   -7.2335   9.398
O2   5.6005   7.2335   9.398
O2   -7.2335   -7.2335   3.438
O2   5.6005   -7.2335   9.398
O2   7.2335   5.6005   9.398
O2   7.2335   5.6005   -9.397
O2   -7.2335   -5.6005   -9.397
O2   -7.2335   7.2335   -3.437
O1   6.4175   6.4175   -6.417
O1   6.4175   -6.4175   6.418
O1   -6.4175   6.4175   6.418
O2   5.6005   9.3975   -7.233
O2   -7.2335   7.2335   3.438
O2   7.2335   -3.4375   7.234
O2   -7.2335   3.4375   -7.233
O2   5.6005   9.3975   7.234
O2   -5.6005   5.6005   3.438
O2   7.2335   9.3975   5.601
O1   6.4175   -6.4175   -6.417
O1   -6.4175   6.4175   -6.417
O2   9.3975   -5.6005   7.234
O2   -3.4375   7.2335   7.234
O2   -3.4375   5.6005   5.601
O2   5.6005   3.4375   -5.6
O2   -7.2335   5.6005   9.398
O2   -3.4375   -5.6005   -5.6
O2   -9.3975   -5.6005   -7.233
O2   -9.3975   -7.2335   -5.6
O2   5.6005   7.2335   -9.397
O2   -5.6005   9.3975   7.234
O2   9.3975   7.2335   -5.6
O2   5.6005   -9.3975   -7.233
O2   3.4375   5.6005   -5.6
O2   -5.6005   3.4375   5.601
O2   5.6005   5.6005   -3.437
O2   -7.2335   -7.2335   -3.437
O2   -7.2335   -9.3975   -5.6
O1   6.4175   6.4175   6.418
O2   5.6005   -9.3975   7.234
O2   -9.3975   -7.2335   5.601
O2   3.4375   7.2335   -7.233
O2   3.4375   -7.2335   -7.233
O2   -5.6005   -5.6005   -3.437
O2   3.4375   -7.2335   7.234
O2   5.6005   -3.4375   -5.6
O2   -5.6005   -9.3975   7.234
H   4.9825   7.8525   -11.675
H   11.6745   7.8525   4.983
H   -7.8525   11.6745   -4.982
H   4.9825   7.8525   11.674
H   -7.8525   -1.1605   7.853
H   11.6745   -4.9825   -7.852
H   1.1605   -7.8525   -7.852
H   1.1605   7.8525   7.853
H   1.1605   4.9825   -4.982
H   -4.9825   11.6745   -7.852
H   -4.9825   -1.1605   4.983
H   4.9825   -11.6745   7.853
H   -1.1605   7.8525   7.853
H   7.8525   -11.6745   4.983
H   -7.8525   4.9825   11.674
H   1.1605   -7.8525   7.853
H   4.9825   11.6745   -7.852
H   4.9825   -1.1605   4.983
H   -4.9825   1.1605   4.983
H   1.1605   -4.9825   -4.982
H   4.9825   -1.1605   -4.982
H   -11.6745   -4.9825   7.853
H   7.8525   7.8525   1.161
H   4.9825   -11.6745   -7.852
H   -7.8525   11.6745   4.983
H   4.9825   -4.9825   -1.16
H   4.9825   1.1605   -4.982
H   -4.9825   -7.8525   11.674
H   4.9825   4.9825   1.161
H   -1.1605   -4.9825   4.983
H   1.1605   4.9825   4.983
H   7.8525   11.6745   4.983
H   -1.1605   7.8525   -7.852
H   -4.9825   7.8525   -11.675
H   11.6745   4.9825   7.853
H   7.8525   7.8525   -1.16
H   4.9825   1.1605   4.983
H   7.8525   -7.8525   1.161
H   7.8525   -4.9825   11.674
H   1.1605   7.8525   -7.852
H   7.8525   -1.1605   -7.852
H   7.8525   -11.6745   -4.982
H   -7.8525   -4.9825   11.674
H   7.8525   1.1605   7.853
H   -1.1605   -4.9825   -4.982
H   11.6745   -7.8525   -4.982
H   -7.8525   -11.6745   -4.982
H   -11.6745   -7.8525   4.983
H   7.8525   4.9825   11.674
H   7.8525   -7.8525   -1.16
H   11.6745   4.9825   -7.852
H   -11.6745   -7.8525   -4.982
H   -11.6745   7.8525   -4.982
H   -11.6745   4.9825   7.853
H   4.9825   11.6745   7.853
H   -7.8525   4.9825   -11.675
H   11.6745   -4.9825   7.853
H   -7.8525   -7.8525   1.161
H   7.8525   -1.1605   7.853
H   -1.1605   -7.8525   7.853
H   -7.8525   -11.6745   4.983
H   -1.1605   -7.8525   -7.852
H   -4.9825   4.9825   1.161
H   11.6745   7.8525   -4.982
H   -4.9825   -1.1605   -4.982
H   4.9825   -4.9825   1.161
H   -1.1605   4.9825   4.983
H   -4.9825   11.6745   7.853
H   -4.9825   -7.8525   -11.675
H   -7.8525   7.8525   -1.16
H   7.8525   11.6745   -4.982
H   -7.8525   7.8525   1.161
H   -4.9825   1.1605   -4.982
H   -4.9825   -4.9825   -1.16
H   4.9825   -7.8525   11.674
H   7.8525   4.9825   -11.675
H   -7.8525   -4.9825   -11.675
H   -4.9825   4.9825   -1.16
H   7.8525   1.1605   -7.852
H   4.9825   4.9825   -1.16
H   -1.1605   4.9825   -4.982
H   4.9825   -7.8525   -11.675
H   -7.8525   -7.8525   -1.16
H   -4.9825   7.8525   11.674
H   -7.8525   1.1605   -7.852
H   -4.9825   -11.6745   -7.852
H   -7.8525   1.1605   7.853
H   1.1605   -4.9825   4.983
H   -11.6745   4.9825   -7.852
H   -7.8525   -1.1605   -7.852
H   -4.9825   -4.9825   1.161
H   11.6745   -7.8525   4.983
H   7.8525   -4.9825   -11.675
H   -4.9825   -11.6745   7.853
H   -11.6745   7.8525   4.983
H   -11.6745   -4.9825   -7.852
C1   6.4175   -9.9985   -6.417
C3   -12.1595   7.2665   5.568
C1   9.9985   -6.4175   6.418
C2   11.4535   6.4175   -6.417
C1   2.8365   6.4175   -6.417
C2   -1.3805   6.4175   6.418
C2   1.3805   6.4175   -6.417
C2   -11.4535   6.4175   6.418
C1   -2.8365   6.4175   6.418
C1   6.4175   -6.4175   -2.836
C2   1.3805   -6.4175   6.418
C1   -6.4175   -6.4175   -2.836
C1   -6.4175   6.4175   2.837
C3   0.6755   7.2665   -7.266
C1   6.4175   -6.4175   2.837
C2   6.4175   6.4175   -11.454
C2   -6.4175   11.4535   6.418
C1   -6.4175   -6.4175   9.998
C3   -5.5675   7.2665   -12.16
C2   -6.4175   -6.4175   -11.454
C2   -6.4175   -1.3805   6.418
C3   0.6755   -7.2665   7.267
C2   -6.4175   6.4175   11.453
C3   7.2665   -5.5675   -12.16
C2   6.4175   -6.4175   11.453
C1   2.8365   -6.4175   6.418
C2   -11.4535   -6.4175   -6.417
C3   -0.6755   -7.2665   7.267
C3   -7.2665   -5.5675   -12.16
C2   6.4175   -6.4175   1.381
C2   -6.4175   6.4175   1.381
C2   6.4175   6.4175   -1.38
C1   6.4175   6.4175   -2.836
C3   -5.5675   0.6755   5.568
C3   0.6755   7.2665   7.267
C2   6.4175   11.4535   6.418
C2   6.4175   1.3805   6.418
C1   6.4175   -9.9985   6.418
C2   -6.4175   11.4535   -6.417
C3   5.5675   5.5675   0.676
C1   6.4175   2.8365   6.418
C3   -5.5675   -7.2665   -12.16
C3   0.6755   -5.5675   -5.567
C2   6.4175   6.4175   1.381
C2   6.4175   -11.4535   -6.417
C2   -6.4175   1.3805   -6.417
C1   -6.4175   2.8365   -6.417
C2   -1.3805   6.4175   -6.417
C1   -2.8365   -6.4175   6.418
C2   11.4535   -6.4175   -6.417
C3   12.1595   7.2665   5.568
C1   -2.8365   6.4175   -6.417
C1   6.4175   9.9985   6.418
C2   -1.3805   -6.4175   6.418
C2   1.3805   6.4175   6.418
C2   1.3805   -6.4175   -6.417
C1   2.8365   -6.4175   -6.417
C2   -11.4535   -6.4175   6.418
C1   2.8365   6.4175   6.418
C2   -11.4535   6.4175   -6.417
C3   5.5675   -0.6755   5.568
C2   6.4175   11.4535   -6.417
C1   -2.8365   -6.4175   -6.417
C2   6.4175   1.3805   -6.417
C1   6.4175   2.8365   -6.417
C2   -6.4175   -1.3805   -6.417
C1   -6.4175   -2.8365   -6.417
C3   -7.2665   12.1595   5.568
C2   6.4175   -11.4535   6.418
C2   -6.4175   -11.4535   -6.417
C3   5.5675   7.2665   -12.16
C2   11.4535   -6.4175   6.418
C3   5.5675   -7.2665   12.16
C2   -6.4175   1.3805   6.418
C1   -6.4175   2.8365   6.418
C1   6.4175   6.4175   2.837
C2   -6.4175   6.4175   -11.454
C1   6.4175   -6.4175   -9.998
C2   6.4175   -6.4175   -1.38
C2   6.4175   -6.4175   -11.454
C2   -6.4175   -6.4175   1.381
C1   -6.4175   -6.4175   2.837
C1   9.9985   6.4175   -6.417
C2   -6.4175   -6.4175   11.453
C2   6.4175   -1.3805   6.418
C1   6.4175   -2.8365   6.418
C2   6.4175   6.4175   11.453
C2   -6.4175   6.4175   -1.38
C1   -6.4175   6.4175   -2.836
C3   5.5675   12.1595   7.267
C3   -7.2665   -0.6755   -7.266
C3   7.2665   -5.5675   12.16
C3   -5.5675   -0.6755   -5.567
C3   -5.5675   5.5675   -0.675
C3   7.2665   5.5675   12.16
C3   -7.2665   5.5675   -12.16
C1   -6.4175   -9.9985   6.418
C3   12.1595   -5.5675   -7.266
C1   -6.4175   6.4175   9.998
C2   -6.4175   -11.4535   6.418
C3   -0.6755   7.2665   -7.266
C3   -7.2665   -12.1595   5.568
C3   -12.1595   -5.5675   7.267
C3   -0.6755   5.5675   -5.567
C3   5.5675   -5.5675   0.676
C2   6.4175   -1.3805   -6.417
C3   -0.6755   -5.5675   5.568
C3   7.2665   -0.6755   7.267
C1   6.4175   -6.4175   9.998
C3   5.5675   -7.2665   -12.16
C3   5.5675   0.6755   -5.567
C3   12.1595   5.5675   7.267
C3   -7.2665   -5.5675   12.16
C1   -6.4175   9.9985   -6.417
C3   0.6755   -7.2665   -7.266
C3   5.5675   0.6755   5.568
C3   7.2665   -0.6755   -7.266
C3   -7.2665   0.6755   -7.266
C2   11.4535   6.4175   6.418
C1   6.4175   6.4175   9.998
C3   -12.1595   -7.2665   5.568
C3   -7.2665   12.1595   -5.567
C3   5.5675   -0.6755   -5.567
C1   -6.4175   -2.8365   6.418
C3   -5.5675   12.1595   -7.266
C1   6.4175   6.4175   -9.998
C1   6.4175   9.9985   -6.417
C1   -6.4175   -6.4175   -9.998
C3   5.5675   7.2665   12.16
C3   12.1595   -7.2665   -5.567
C3   7.2665   7.2665   0.676
C3   -7.2665   -7.2665   0.676
C3   -5.5675   5.5675   0.676
C3   -5.5675   -0.6755   5.568
C3   -5.5675   -12.1595   7.267
C3   -12.1595   7.2665   -5.567
C3   5.5675   -12.1595   -7.266
C1   9.9985   6.4175   6.418
C3   -5.5675   -5.5675   0.676
C1   6.4175   -2.8365   -6.417
C3   -12.1595   5.5675   7.267
C3   -0.6755   -7.2665   -7.266
C3   5.5675   12.1595   -7.266
C3   -0.6755   5.5675   5.568
C3   7.2665   0.6755   7.267
C3   -5.5675   12.1595   7.267
C3   0.6755   5.5675   -5.567
C3   12.1595   5.5675   -7.266
C3   -5.5675   -7.2665   12.16
C3   12.1595   -5.5675   7.267
C3   -7.2665   0.6755   7.267
C1   -9.9985   -6.4175   -6.417
C3   7.2665   7.2665   -0.675
C2   -1.3805   -6.4175   -6.417
C3   -0.6755   7.2665   7.267
C3   -7.2665   -0.6755   7.267
C3   12.1595   7.2665   -5.567
C1   -6.4175   9.9985   6.418
C3   12.1595   -7.2665   5.568
C3   -5.5675   7.2665   12.16
C3   -5.5675   0.6755   -5.567
C3   0.6755   -5.5675   5.568
C3   5.5675   -12.1595   7.267
C3   -12.1595   -5.5675   -7.266
C1   -6.4175   6.4175   -9.998
C3   -7.2665   7.2665   -0.675
C3   -5.5675   -12.1595   -7.266
C1   -6.4175   -9.9985   -6.417
C3   5.5675   -5.5675   -0.675
C3   7.2665   12.1595   5.568
C3   -5.5675   -5.5675   -0.675
C3   7.2665   -7.2665   -0.675
C2   -6.4175   -6.4175   -1.38
C3   -12.1595   5.5675   -7.266
C3   7.2665   12.1595   -5.567
C1   -9.9985   6.4175   -6.417
C3   5.5675   5.5675   -0.675
C3   0.6755   5.5675   5.568
C1   -9.9985   6.4175   6.418
C1   -9.9985   -6.4175   6.418
C3   -7.2665   -7.2665   -0.675
C3   -7.2665   -12.1595   -5.567
C3   7.2665   5.5675   -12.16
C3   -7.2665   7.2665   0.676
C3   -0.6755   -5.5675   -5.567
C3   7.2665   -7.2665   0.676
C3   7.2665   0.6755   -7.266
C3   7.2665   -12.1595   -5.567
C1   9.9985   -6.4175   -6.417
C3   -7.2665   5.5675   12.16
C3   7.2665   -12.1595   5.568
C3   -12.1595   -7.2665   -5.567
H2G   -2.02349   1.95219   0.60984
H2E   -2.18643   1.95219   0.943144
H2E   -1.86055   1.95219   0.276537
H2N   -2.18292   1.95219   0.935957
H2N   -1.86406   1.95219   0.283724
H2G   12.2787   -10.7532   -8.21976
H2E   11.9218   -10.7532   -8.3211
H2E   12.6356   -10.7532   -8.11842
H2N   11.9295   -10.7532   -8.31892
H2N   12.6279   -10.7532   -8.12061
434
Frame 3; Step count: 20; Realtime (MD) = 0.000000 fs
ZN   7.5335   5.3005   -7.533
ZN   5.3005   -5.3005   -5.3
ZN   5.3005   7.5335   7.534
ZN   5.3005   -7.5335   7.534
ZN   -5.3005   7.5335   -7.533
ZN   5.3005   5.3005   5.301
ZN   7.5335   -5.3005   -7.533
ZN   -5.3005   -7.5335   7.534
ZN   -5.3005   5.3005   -5.3
ZN   -5.3005   -5.3005   5.301
ZN   -7.5335   -5.3005   -7.533
ZN   7.5335   -7.5335   5.301
ZN   -7.5335   -7.5335   5.301
ZN   7.5335   -5.3005   7.534
ZN   7.5335   7.5335   5.301
ZN   5.3005   -7.5335   -7.533
ZN   -5.3005   -7.5335   -7.533
ZN   -7.5335   7.5335   -5.3
ZN   -7.5335   -5.3005   7.534
ZN   -7.5335   -7.5335   -5.3
ZN   -5.3005   -5.3005   -5.3
ZN   -7.5335   5.3005   7.534
ZN   -7.5335   5.3005   -7.533
ZN   -5.3005   5.3005   5.301
ZN   5.3005   7.5335   -7.533
ZN   5.3005   -5.3005   5.301
ZN   5.3005   5.3005   -5.3
ZN   7.5335   -7.5335   -5.3
ZN   7.5335   7.5335   -5.3
ZN   -7.5335   7.5335   5.301
ZN   7.5335   5.3005   7.534
ZN   -5.3005   7.5335   7.534
O2   3.4375   7.2335   7.234
O2   -7.2335   5.6005   -9.397
O2   -7.2335   3.4375   7.234
O2   -9.3975   7.2335   -5.6
O2   7.2335   -7.2335   3.438
O2   3.4375   -5.6005   -5.6
O2   7.2335   3.4375   -7.233
O2   -5.6005   7.2335   9.398
O2   -3.4375   5.6005   -5.6
O2   7.2335   3.4375   7.234
O2   7.2335   -9.3975   5.601
O2   -7.2335   -9.3975   5.601
O2   9.3975   -5.6005   -7.233
O2   -5.6005   3.4375   -5.6
O2   -5.6005   9.3975   -7.233
O2   -3.4375   7.2335   -7.233
O2   9.3975   5.6005   -7.233
O2   5.6005   -3.4375   5.601
O2   3.4375   -5.6005   5.601
O2   -5.6005   -7.2335   -9.397
O2   7.2335   -5.6005   9.398
O2   7.2335   9.3975   -5.6
O2   -3.4375   -7.2335   -7.233
O2   7.2335   7.2335   -3.437
O1   -6.4175   -6.4175   6.418
O2   -7.2335   -5.6005   9.398
O2   -3.4375   -5.6005   5.601
O2   7.2335   -5.6005   -9.397
O2   -5.6005   -3.4375   -5.6
O2   7.2335   -7.2335   -3.437
O2   9.3975   5.6005   7.234
O2   5.6005   -7.2335   -9.397
O2   -5.6005   5.6005   -3.437
O2   5.6005   -5.6005   -3.437
O2   -9.3975   5.6005   7.234
O2   9.3975   7.2335   5.601
O2   7.2335   -9.3975   -5.6
O2   -5.6005   7.2335   -9.397
O2   -5.6005   -5.6005   3.438
O2   -7.2335   9.3975   5.601
O2   7.2335   -3.4375   -7.233
O2   -7.2335   -3.4375   -7.233
O2   5.6005   3.4375   5.601
O2   9.3975   -7.2335   5.601
O2   -7.2335   -3.4375   7.234
O2   9.3975   -7.2335   -5.6
O2   -3.4375   -7.2335   7.234
O2   -9.3975   -5.6005   7.234
O1   -6.4175   -6.4175   -6.417
O2   7.2335   7.2335   3.438
O2   3.4375   5.6005   5.601
O2   -9.3975   5.6005   -7.233
O2   5.6005   5.6005   3.438
O2   -7.2335   9.3975   -5.6
O2   5.6005   -5.6005   3.438
O2   -9.3975   7.2335   5.601
O2   -5.6005   -9.3975   -7.233
O2   -5.6005   -3.4375   5.601
O2   -5.6005   -7.2335   9.398
O2   5.6005   7.2335   9.398
O2   -7.2335   -7.2335   3.438
O2   5.6005   -7.2335   9.398
O2   7.2335   5.6005   9.398
O2   7.2335   5.6005   -9.397
O2   -7.2335   -5.6005   -9.397
O2   -7.2335   7.2335   -3.437
O1   6.4175   6.4175   -6.417
O1   6.4175   -6.4175   6.418
O1   -6.4175   6.4175   6.418
O2   5.6005   9.3975   -7.233
O2   -7.2335   7.2335   3.438
O2   7.2335   -3.4375   7.234
O2   -7.2335   3.4375   -7.233
O2   5.6005   9.3975   7.234
O2   -5.6005   5.6005   3.438
O2   7.2335   9.3975   5.601
O1   6.4175   -6.4175   -6.417
O1   -6.4175   6.4175   -6.417
O2   9.3975   -5.6005   7.234
O2   -3.4375   7.2335   7.234
O2   -3.4375   5.6005   5.601
O2   5.6005   3.4375   -5.6
O2   -7.2335   5.6005   9.398
O2   -3.4375   -5.6005   -5.6
O2   -9.3975   -5.6005   -7.233