5
Frame 1; Step count: 0; Realtime (MD) = 0.000000fs
C   0.2400000000   0.100000000   0.140000000
H   0.100000000   0.000000000   1.099000000
H   1.336000000   0.000000000   -0.366000000
H   -0.618000000   -0.897000000   -0.366000000
H   -0.118000000   0.897000000   -0.366000000
